============================== echo of input deck ==============================
title "Dimer Excitation"
echo
memory 1000 mb
scratch_dir /home/ep3/Documents/NWChem/Dimer/Scratch

start excitation

geometry units bohr
  C        0.0000000000      1.2651715494      5.6691779657
  C        0.0000000000     -1.2651715494      5.6691779657
  H       -1.6146914887      2.3323319404      5.6691779657
  H        1.6146914887      2.3323319404      5.6691779657
  H       -1.6146914887     -2.3323319404      5.6691779657
  H        1.6146914887     -2.3323319404      5.6691779657
  C        0.0000000000     -1.2387153855     -1.8897259886
  C        0.0000000000      1.2387153855     -1.8897259886
  F        2.0713286561     -2.6253963159     -1.8897259886
  F       -2.0713286561     -2.6253963159     -1.8897259886
  F       -2.0713286561      2.6253963159     -1.8897259886
  F        2.0713286561      2.6253963159     -1.8897259886
end

basis
  * library 6-31g*
end

dft
  xc xcamb88 1.00 lyp 0.81 vwn_5 0.19 hfexch 1.00
     cam 0.33 cam_alpha 0.19 cam_beta 0.46
  direct
end

tddft
  nroots 100
  singlet
  notriplet
end

task tddft energy
================================================================================

 Output coordinates in a.u. (scale by  1.000000000 to convert to a.u.)

  No.       Tag          Charge          X              Y              Z
 ---- ---------------- ---------- -------------- -------------- --------------
    1 C                    6.0000     0.00000000     1.26517155     5.66917797
    2 C                    6.0000     0.00000000    -1.26517155     5.66917797
    3 H                    1.0000    -1.61469149     2.33233194     5.66917797
    4 H                    1.0000     1.61469149     2.33233194     5.66917797
    5 H                    1.0000    -1.61469149    -2.33233194     5.66917797
    6 H                    1.0000     1.61469149    -2.33233194     5.66917797
    7 C                    6.0000     0.00000000    -1.23871539    -1.88972599
    8 C                    6.0000     0.00000000     1.23871539    -1.88972599
    9 F                    9.0000     2.07132866    -2.62539632    -1.88972599
   10 F                    9.0000    -2.07132866    -2.62539632    -1.88972599
   11 F                    9.0000    -2.07132866     2.62539632    -1.88972599
   12 F                    9.0000     2.07132866     2.62539632    -1.88972599

         Total DFT energy =     -553.893793326557

                       DFT Final Molecular Orbital Analysis
                       ------------------------------------

 Vector    8  Occ=2.000000D+00  E=-1.024811D+01  Symmetry=b2

 Vector    9  Occ=2.000000D+00  E=-1.383939D+00  Symmetry=a1

 Vector   10  Occ=2.000000D+00  E=-1.368873D+00  Symmetry=b2

 Vector   11  Occ=2.000000D+00  E=-1.323693D+00  Symmetry=b1

 Vector   12  Occ=2.000000D+00  E=-1.312261D+00  Symmetry=a2

 Vector   13  Occ=2.000000D+00  E=-8.848862D-01  Symmetry=a1

 Vector   14  Occ=2.000000D+00  E=-8.436922D-01  Symmetry=a1

 Vector   15  Occ=2.000000D+00  E=-7.290954D-01  Symmetry=b2

 Vector   16  Occ=2.000000D+00  E=-6.860474D-01  Symmetry=a1

 Vector   17  Occ=2.000000D+00  E=-6.777543D-01  Symmetry=b2

 Vector   18  Occ=2.000000D+00  E=-6.761996D-01  Symmetry=b1

 Vector   19  Occ=2.000000D+00  E=-6.281964D-01  Symmetry=a2

 Vector   20  Occ=2.000000D+00  E=-6.259917D-01  Symmetry=a1

 Vector   21  Occ=2.000000D+00  E=-5.782746D-01  Symmetry=b2

 Vector   22  Occ=2.000000D+00  E=-5.509137D-01  Symmetry=b2

 Vector   23  Occ=2.000000D+00  E=-5.444644D-01  Symmetry=b1

 Vector   24  Occ=2.000000D+00  E=-5.251497D-01  Symmetry=b1

 Vector   25  Occ=2.000000D+00  E=-5.194383D-01  Symmetry=a2

 Vector   26  Occ=2.000000D+00  E=-5.139545D-01  Symmetry=b1

 Vector   27  Occ=2.000000D+00  E=-5.108699D-01  Symmetry=a1

 Vector   28  Occ=2.000000D+00  E=-4.976607D-01  Symmetry=a1

 Vector   29  Occ=2.000000D+00  E=-4.945795D-01  Symmetry=a2

 Vector   30  Occ=2.000000D+00  E=-4.287101D-01  Symmetry=a2

 Vector   31  Occ=2.000000D+00  E=-3.306680D-01  Symmetry=a1

 Vector   32  Occ=2.000000D+00  E=-3.105416D-01  Symmetry=a1

 Vector   33  Occ=0.000000D+00  E= 6.431098D-02  Symmetry=b2

 Vector   34  Occ=0.000000D+00  E= 9.616513D-02  Symmetry=b2

 Vector   35  Occ=0.000000D+00  E= 1.287477D-01  Symmetry=b1

 Vector   36  Occ=0.000000D+00  E= 1.874893D-01  Symmetry=a1

 Vector   37  Occ=0.000000D+00  E= 2.007735D-01  Symmetry=b2

 Vector   38  Occ=0.000000D+00  E= 2.122257D-01  Symmetry=b1

 Vector   39  Occ=0.000000D+00  E= 2.137579D-01  Symmetry=a1

 Vector   40  Occ=0.000000D+00  E= 2.249594D-01  Symmetry=b2

 Vector   41  Occ=0.000000D+00  E= 3.028288D-01  Symmetry=a2

 Vector   42  Occ=0.000000D+00  E= 3.895628D-01  Symmetry=b2

 Vector   43  Occ=0.000000D+00  E= 4.583366D-01  Symmetry=b2

 Vector   44  Occ=0.000000D+00  E= 4.849025D-01  Symmetry=a2

 Vector   45  Occ=0.000000D+00  E= 4.898155D-01  Symmetry=a1

 Vector   46  Occ=0.000000D+00  E= 5.316048D-01  Symmetry=a1

     Multipole analysis of the density
     ---------------------------------

     L   x y z        total         alpha         beta         nuclear
     -   - - -        -----         -----         ----         -------
     0   0 0 0     -0.000000    -32.000000    -32.000000     64.000000

     1   1 0 0      0.000000      0.000000      0.000000      0.000000
     1   0 1 0     -0.000000     -0.000000     -0.000000      0.000000
     1   0 0 1      0.044093      0.022046      0.022046     -0.000000

     2   2 0 0    -32.212563    -98.547982    -98.547982    164.883401
     2   1 1 0      0.000000      0.000000      0.000000      0.000000
     2   1 0 1      0.000000      0.000000      0.000000      0.000000
     2   0 2 0    -31.885961   -169.701679   -169.701679    307.517397
     2   0 1 1     -0.000000     -0.000000     -0.000000      0.000000

  Root   1 singlet b1             0.256438992 a.u.                6.9781 eV
     Dipole Oscillator Strength                         0.00001
  Root   2 singlet b2             0.287088272 a.u.                7.8121 eV
     Dipole Oscillator Strength                         0.00885
  Root   3 singlet b2             0.301781074 a.u.                8.2119 eV
     Dipole Oscillator Strength                         0.18190
  Root   4 singlet b2             0.318927763 a.u.                8.6785 eV
     Dipole Oscillator Strength                         0.53307
  Root   5 singlet b1             0.319143740 a.u.                8.6843 eV
     Dipole Oscillator Strength                         0.00002
  Root   6 singlet b2             0.339414529 a.u.                9.2359 eV
     Dipole Oscillator Strength                         0.00006
  Root   7 singlet b2             0.354118253 a.u.                9.6361 eV
     Dipole Oscillator Strength                         0.00102
  Root   8 singlet a1             0.361289646 a.u.                9.8312 eV
     Dipole Oscillator Strength                         0.05770
  Root   9 singlet a1             0.367117903 a.u.                9.9898 eV
     Dipole Oscillator Strength                         0.00083
  Root  10 singlet b2             0.369491610 a.u.               10.0544 eV
     Dipole Oscillator Strength                         0.00001
  Root  11 singlet b1             0.373682635 a.u.               10.1684 eV
     Dipole Oscillator Strength                         0.00003
  Root  12 singlet b1             0.381393139 a.u.               10.3782 eV
     Dipole Oscillator Strength                         0.00000
  Root  13 singlet b2             0.410257491 a.u.               11.1637 eV
     Dipole Oscillator Strength                         0.00001
  Root  14 singlet b1             0.423433623 a.u.               11.5222 eV
     Dipole Oscillator Strength                         0.00000
  Root  15 singlet a1             0.424115697 a.u.               11.5408 eV
     Dipole Oscillator Strength                         0.00029
  Root  16 singlet a2             0.428189258 a.u.               11.6516 eV
     Dipole Oscillator Strength                         0.00000
  Root  17 singlet b2             0.430475337 a.u.               11.7138 eV
     Dipole Oscillator Strength                         0.00000
  Root  18 singlet a2             0.442229410 a.u.               12.0337 eV
     Dipole Oscillator Strength                         0.00000
  Root  19 singlet b1             0.442305654 a.u.               12.0358 eV
     Dipole Oscillator Strength                         0.00037
  Root  20 singlet b2             0.447325681 a.u.               12.1724 eV
     Dipole Oscillator Strength                         0.00128
  Root  21 singlet b1             0.447481759 a.u.               12.1766 eV
     Dipole Oscillator Strength                         0.00000
  Root  22 singlet b1             0.456909588 a.u.               12.4331 eV
     Dipole Oscillator Strength                         0.00565
  Root  23 singlet a1             0.457881759 a.u.               12.4596 eV
     Dipole Oscillator Strength                         0.02455
  Root  24 singlet b2             0.460674013 a.u.               12.5356 eV
     Dipole Oscillator Strength                         0.00065
  Root  25 singlet b2             0.461969308 a.u.               12.5708 eV
     Dipole Oscillator Strength                         0.06941
  Root  26 singlet a2             0.467663470 a.u.               12.7258 eV
     Dipole Oscillator Strength                         0.00000
  Root  27 singlet a2             0.473515464 a.u.               12.8850 eV
     Dipole Oscillator Strength                         0.00000
  Root  28 singlet a1             0.475457355 a.u.               12.9379 eV
     Dipole Oscillator Strength                         0.00000
  Root  29 singlet b2             0.477955495 a.u.               13.0058 eV
     Dipole Oscillator Strength                         0.00147
  Root  30 singlet a1             0.478220199 a.u.               13.0130 eV
     Dipole Oscillator Strength                         0.00007
  Root  31 singlet b1             0.478423468 a.u.               13.0186 eV
     Dipole Oscillator Strength                         0.00676
  Root  32 singlet b2             0.481748671 a.u.               13.1091 eV
     Dipole Oscillator Strength                         0.00000
  Root  33 singlet a2             0.481749766 a.u.               13.1091 eV
     Dipole Oscillator Strength                         0.00000
  Root  34 singlet b1             0.486929855 a.u.               13.2500 eV
     Dipole Oscillator Strength                         0.02545
  Root  35 singlet a1             0.488475239 a.u.               13.2921 eV
     Dipole Oscillator Strength                         0.01332
  Root  36 singlet b2             0.496248520 a.u.               13.5036 eV
     Dipole Oscillator Strength                         0.00365
  Root  37 singlet a2             0.498106873 a.u.               13.5542 eV
     Dipole Oscillator Strength                         0.00000
  Root  38 singlet b1             0.504581231 a.u.               13.7304 eV
     Dipole Oscillator Strength                         0.00001
  Root  39 singlet a2             0.506294777 a.u.               13.7770 eV
     Dipole Oscillator Strength                         0.00000
  Root  40 singlet b2             0.508551582 a.u.               13.8384 eV
     Dipole Oscillator Strength                         0.45235
  Root  41 singlet a2             0.509389456 a.u.               13.8612 eV
     Dipole Oscillator Strength                         0.00000
  Root  42 singlet b2             0.509679606 a.u.               13.8691 eV
     Dipole Oscillator Strength                         0.00630
  Root  43 singlet b1             0.516432046 a.u.               14.0528 eV
     Dipole Oscillator Strength                         0.36083
  Root  44 singlet a1             0.522317978 a.u.               14.2130 eV
     Dipole Oscillator Strength                         0.00046
  Root  45 singlet a2             0.523164492 a.u.               14.2360 eV
     Dipole Oscillator Strength                         0.00000
  Root  46 singlet b1             0.531283249 a.u.               14.4570 eV
     Dipole Oscillator Strength                         0.00028
  Root  47 singlet a1             0.535963034 a.u.               14.5843 eV
     Dipole Oscillator Strength                         0.00001
  Root  48 singlet b2             0.539150640 a.u.               14.6710 eV
     Dipole Oscillator Strength                         0.11399
  Root  49 singlet a2             0.539677478 a.u.               14.6854 eV
     Dipole Oscillator Strength                         0.00000
  Root  50 singlet a1             0.541140111 a.u.               14.7252 eV
     Dipole Oscillator Strength                         0.00005
     Dipole Oscillator Strength                         0.00129
  Root  52 singlet a2             0.547520226 a.u.               14.8988 eV
     Dipole Oscillator Strength                         0.00000
  Root  53 singlet a1             0.549474951 a.u.               14.9520 eV
     Dipole Oscillator Strength                         0.00024
  Root  54 singlet b1             0.549507605 a.u.               14.9529 eV
     Dipole Oscillator Strength                         0.18973
  Root  55 singlet b2             0.549924272 a.u.               14.9642 eV
     Dipole Oscillator Strength                         0.00000
  Root  56 singlet b1             0.550605754 a.u.               14.9828 eV
     Dipole Oscillator Strength                         0.00295
  Root  57 singlet b1             0.554494279 a.u.               15.0886 eV
     Dipole Oscillator Strength                         0.00023
  Root  58 singlet a2             0.556590467 a.u.               15.1456 eV
     Dipole Oscillator Strength                         0.00000
  Root  59 singlet b1             0.559112169 a.u.               15.2142 eV
     Dipole Oscillator Strength                         0.16613
  Root  60 singlet a2             0.561202647 a.u.               15.2711 eV
     Dipole Oscillator Strength                         0.00000
  Root  61 singlet a2             0.563445851 a.u.               15.3321 eV
     Dipole Oscillator Strength                         0.00000
  Root  62 singlet a1             0.563616217 a.u.               15.3368 eV
     Dipole Oscillator Strength                         0.01254
  Root  63 singlet b2             0.566902903 a.u.               15.4262 eV
     Dipole Oscillator Strength                         0.06413
  Root  64 singlet b2             0.576949010 a.u.               15.6996 eV
     Dipole Oscillator Strength                         0.46202
  Root  65 singlet b1             0.581151846 a.u.               15.8140 eV
     Dipole Oscillator Strength                         0.00006
  Root  66 singlet a2             0.587088421 a.u.               15.9755 eV
     Dipole Oscillator Strength                         0.00000
  Root  67 singlet a1             0.592973590 a.u.               16.1356 eV
     Dipole Oscillator Strength                         0.00003
  Root  68 singlet b1             0.598452752 a.u.               16.2847 eV
     Dipole Oscillator Strength                         0.05412
  Root  69 singlet a2             0.598777419 a.u.               16.2936 eV
     Dipole Oscillator Strength                         0.00000
  Root  70 singlet a1             0.600042711 a.u.               16.3280 eV
     Dipole Oscillator Strength                         0.20366
  Root  71 singlet b1             0.600366781 a.u.               16.3368 eV
     Dipole Oscillator Strength                         0.51016
  Root  72 singlet b2             0.602706624 a.u.               16.4005 eV
     Dipole Oscillator Strength                         0.00080
  Root  73 singlet a2             0.604316046 a.u.               16.4443 eV
     Dipole Oscillator Strength                         0.00000
  Root  74 singlet b1             0.607164654 a.u.               16.5218 eV
     Dipole Oscillator Strength                         0.00037
  Root  75 singlet a1             0.608068549 a.u.               16.5464 eV
     Dipole Oscillator Strength                         0.00003
  Root  76 singlet b2             0.608072516 a.u.               16.5465 eV
     Dipole Oscillator Strength                         0.04879
  Root  77 singlet a2             0.609170055 a.u.               16.5764 eV
     Dipole Oscillator Strength                         0.00000
  Root  78 singlet a1             0.610614802 a.u.               16.6157 eV
     Dipole Oscillator Strength                         0.02167
  Root  79 singlet a2             0.610969323 a.u.               16.6253 eV
     Dipole Oscillator Strength                         0.00000
  Root  80 singlet b2             0.611001842 a.u.               16.6262 eV
     Dipole Oscillator Strength                         0.04949
  Root  81 singlet b1             0.615223907 a.u.               16.7411 eV
     Dipole Oscillator Strength                         0.01923
  Root  82 singlet a1             0.615275773 a.u.               16.7425 eV
     Dipole Oscillator Strength                         0.08059
  Root  83 singlet b2             0.615685357 a.u.               16.7537 eV
     Dipole Oscillator Strength                         0.00000
  Root  84 singlet b2             0.618193064 a.u.               16.8219 eV
     Dipole Oscillator Strength                         0.00411
  Root  85 singlet b2             0.623642913 a.u.               16.9702 eV
     Dipole Oscillator Strength                         0.00074
  Root  86 singlet b2             0.624886888 a.u.               17.0040 eV
     Dipole Oscillator Strength                         0.00111
  Root  87 singlet a1             0.624987617 a.u.               17.0068 eV
     Dipole Oscillator Strength                         0.00006
  Root  88 singlet a1             0.626375074 a.u.               17.0445 eV
     Dipole Oscillator Strength                         0.00101
  Root  89 singlet b1             0.627128020 a.u.               17.0650 eV
     Dipole Oscillator Strength                         0.00102
  Root  90 singlet a2             0.627478284 a.u.               17.0746 eV
     Dipole Oscillator Strength                         0.00000
  Root  91 singlet a1             0.628448156 a.u.               17.1010 eV
     Dipole Oscillator Strength                         0.00361
  Root  92 singlet b2             0.631524406 a.u.               17.1847 eV
     Dipole Oscillator Strength                         0.34602
  Root  93 singlet b2             0.632596084 a.u.               17.2138 eV
     Dipole Oscillator Strength                         0.03195
  Root  94 singlet a2             0.633029207 a.u.               17.2256 eV
     Dipole Oscillator Strength                         0.00000
  Root  95 singlet b1             0.638462995 a.u.               17.3735 eV
     Dipole Oscillator Strength                         0.00079
  Root  96 singlet a2             0.645018771 a.u.               17.5519 eV
     Dipole Oscillator Strength                         0.00000
  Root  97 singlet b1             0.646410469 a.u.               17.5897 eV
     Dipole Oscillator Strength                         0.09306
  Root  98 singlet b1             0.647741571 a.u.               17.6260 eV
     Dipole Oscillator Strength                         0.01756
  Root  99 singlet b1             0.648916793 a.u.               17.6579 eV
     Dipole Oscillator Strength                         0.00019
  Root 100 singlet a1             0.649245397 a.u.               17.6669 eV
     Dipole Oscillator Strength                         0.01914
 Total times  cpu:     4616.6s     wall:     4617.2s
